
#(C) 2025 by FIZ Karlsruhe - Leibniz Institute for Information Infrastructure.  All rights reserved.
data_70100-ICSD
_database_code_ICSD 70100
_audit_creation_date 1997-11-10
_audit_update_record 2018-08-01
_chemical_name_common Arsenic
_chemical_formula_structural As
_chemical_formula_sum As1
_chemical_name_structure_type P(black)
_chemical_name_mineral Arsenolamprite
_exptl_crystal_density_diffrn 5.55
_citation_title 'The structures of orthorhombic and vitreous arsenic'
loop_
_citation_id
_citation_journal_full
_citation_year
_citation_journal_volume
_citation_page_first
_citation_page_last
_citation_journal_id_ASTM
primary 'Philosophical Magazine ' 1975 31 57 64 PHMAA4
loop_
_citation_author_citation_id
_citation_author_name
primary 'Smith, P.M.'
primary 'Leadbetter, A.J.'
primary 'Apling, A.J.'
_cell_length_a 3.65
_cell_length_b 4.47
_cell_length_c 11.
_cell_angle_alpha 90.
_cell_angle_beta 90.
_cell_angle_gamma 90.
_cell_volume 179.47
_cell_formula_units_Z 8
_space_group_name_H-M_alt 'B m a b'
_space_group_IT_number 64
loop_
_space_group_symop_id
_space_group_symop_operation_xyz
1 '-x, y+1/2, -z+1/2'
2 '-x, -y+1/2, z+1/2'
3 '-x, y, z'
4 '-x, -y, -z'
5 'x, -y+1/2, z+1/2'
6 'x, y+1/2, -z+1/2'
7 'x, -y, -z'
8 'x, y, z'
9 '-x+1/2, y+1/2, -z'
10 '-x+1/2, -y+1/2, z'
11 '-x+1/2, y, z+1/2'
12 '-x+1/2, -y, -z+1/2'
13 'x+1/2, -y+1/2, z'
14 'x+1/2, y+1/2, -z'
15 'x+1/2, -y, -z+1/2'
16 'x+1/2, y, z+1/2'
loop_
_atom_type_symbol
_atom_type_oxidation_number
As0+ 0
loop_
_atom_site_label
_atom_site_type_symbol
_atom_site_symmetry_multiplicity
_atom_site_Wyckoff_symbol
_atom_site_fract_x
_atom_site_fract_y
_atom_site_fract_z
_atom_site_B_iso_or_equiv
_atom_site_occupancy
As1 As0+ 8 f 0 0.06 0.11 0.9 1.
#End of TTdata_70100-ICSD