
#(C) 2025 by FIZ Karlsruhe - Leibniz Institute for Information Infrastructure.  All rights reserved.
data_26636-ICSD
_database_code_ICSD 26636
_audit_creation_date 1980-01-01
_audit_update_record 2018-08-01
_chemical_name_common Boron
_chemical_formula_structural B
_chemical_formula_sum B1
_chemical_name_structure_type B(tP50)
_exptl_crystal_density_diffrn 2.32
_citation_title 'The structure of tetragonal boron'
loop_
_citation_id
_citation_journal_full
_citation_year
_citation_journal_volume
_citation_page_first
_citation_page_last
_citation_journal_id_ASTM
primary 'Journal of the American Chemical Society' 1958 80 4507 4515 JACSAT
loop_
_citation_author_citation_id
_citation_author_name
primary 'Hoard, J.L.'
primary 'Hughes, R.E.'
primary 'Sands, D.E.'
_cell_length_a 8.740(15)
_cell_length_b 8.740(15)
_cell_length_c 5.068(10)
_cell_angle_alpha 90.
_cell_angle_beta 90.
_cell_angle_gamma 90.
_cell_volume 387.13
_cell_formula_units_Z 50
_space_group_name_H-M_alt 'P 42/n n m S'
_space_group_IT_number 134
loop_
_space_group_symop_id
_space_group_symop_operation_xyz
1 '-y+1/2, -x+1/2, -z+1/2'
2 'y+1/2, x+1/2, -z+1/2'
3 '-y, -x, z'
4 'y, x, z'
5 'y+1/2, -x+1/2, z+1/2'
6 '-y+1/2, x+1/2, z+1/2'
7 'y, -x, -z'
8 '-y, x, -z'
9 'x+1/2, -y+1/2, z+1/2'
10 '-x+1/2, y+1/2, z+1/2'
11 'x, -y, -z'
12 '-x, y, -z'
13 '-x+1/2, -y+1/2, -z+1/2'
14 'x+1/2, y+1/2, -z+1/2'
15 '-x, -y, z'
16 'x, y, z'
loop_
_atom_type_symbol
_atom_type_oxidation_number
B0+ 0
loop_
_atom_site_label
_atom_site_type_symbol
_atom_site_symmetry_multiplicity
_atom_site_Wyckoff_symbol
_atom_site_fract_x
_atom_site_fract_y
_atom_site_fract_z
_atom_site_B_iso_or_equiv
_atom_site_occupancy
B1 B0+ 16 n 0.3253 0.0883 0.3985 0.76 1.
B2 B0+ 16 n 0.2272 0.0805 0.0865 0.73 1.
B3 B0+ 8 m 0.1195 0.1195 0.378 0.79 1.
B4 B0+ 8 m 0.2425 0.2425 0.5815 0.67 1.
B5 B0+ 2 b 0 0 0.5 0.52 1.
#End of TTdata_26636-ICSD