
#(C) 2025 by FIZ Karlsruhe - Leibniz Institute for Information Infrastructure.  All rights reserved.
data_201697-ICSD
_database_code_ICSD 201697
_audit_creation_date 1986-04-14
_audit_update_record 2006-04-01
_chemical_name_common Chlorine
_chemical_formula_structural Cl2
_chemical_formula_sum Cl2
_chemical_name_structure_type I2
_exptl_crystal_density_diffrn 2.11
_diffrn_ambient_temperature 55.
_citation_title

;
The temperature dependence of the crystal structures of the solid halogens,
bromine and chlorine
;
loop_
_citation_id
_citation_journal_full
_citation_year
_citation_journal_volume
_citation_page_first
_citation_page_last
_citation_journal_id_ASTM
primary 'Molecular Physics' 1984 53 929 939 MOPHAM
loop_
_citation_author_citation_id
_citation_author_name
primary 'Powell, B.M.'
primary 'Heal, K.M.'
primary 'Torrie, B.H.'
_cell_length_a 6.1804(2)
_cell_length_b 4.4174(1)
_cell_length_c 8.1711(2)
_cell_angle_alpha 90.
_cell_angle_beta 90.
_cell_angle_gamma 90.
_cell_volume 223.08
_cell_formula_units_Z 4
_space_group_name_H-M_alt 'C m c a'
_space_group_IT_number 64
loop_
_space_group_symop_id
_space_group_symop_operation_xyz
1 '-x, -y+1/2, z+1/2'
2 '-x, y+1/2, -z+1/2'
3 '-x, y, z'
4 '-x, -y, -z'
5 'x, y+1/2, -z+1/2'
6 'x, -y+1/2, z+1/2'
7 'x, -y, -z'
8 'x, y, z'
9 '-x+1/2, -y, z+1/2'
10 '-x+1/2, y, -z+1/2'
11 '-x+1/2, y+1/2, z'
12 '-x+1/2, -y+1/2, -z'
13 'x+1/2, y, -z+1/2'
14 'x+1/2, -y, z+1/2'
15 'x+1/2, -y+1/2, -z'
16 'x+1/2, y+1/2, z'
loop_
_atom_type_symbol
_atom_type_oxidation_number
Cl0+ 0
loop_
_atom_site_label
_atom_site_type_symbol
_atom_site_symmetry_multiplicity
_atom_site_Wyckoff_symbol
_atom_site_fract_x
_atom_site_fract_y
_atom_site_fract_z
_atom_site_B_iso_or_equiv
_atom_site_occupancy
Cl1 Cl0+ 8 f 0 0.1224 0.1022 . 1.
loop_
_atom_site_aniso_label
_atom_site_aniso_type_symbol
_atom_site_aniso_U_11
_atom_site_aniso_U_22
_atom_site_aniso_U_33
_atom_site_aniso_U_12
_atom_site_aniso_U_13
_atom_site_aniso_U_23
Cl1 Cl0+ 0.0172(5) 0.0195(5) 0.0154(5) 0 0 -0.0008(6)
#End of TTdata_201697-ICSD