
#(C) 2025 by FIZ Karlsruhe - Leibniz Institute for Information Infrastructure.  All rights reserved.
data_622376-ICSD
_database_code_ICSD 622376
_audit_creation_date 2008-08-01
_audit_update_record 2018-02-01
_chemical_name_common Curium
_chemical_formula_structural Cm
_chemical_formula_sum Cm1
_chemical_name_structure_type Î±-La
_exptl_crystal_density_diffrn 13.42
_citation_title

;
Preparation of rare metallic actinides (248Cm, 249Bk, 249Cf) and investigation
of their crystal structure
;
_publ_section_comment 'Cell and Type only determined'
loop_
_citation_id
_citation_journal_full
_citation_year
_citation_journal_volume
_citation_page_first
_citation_page_last
_citation_journal_id_ASTM
primary 'Journal of Radioanalytical and Nuclear Chemistry' 1990 143 253 259
JRNCDM
loop_
_citation_author_citation_id
_citation_author_name
primary 'Seleznev, A.G.'
primary 'Radchenko, V.M.'
primary 'Shushakov, V.D.'
primary 'Ryabinin, M.A.'
primary 'Droznik, R.R.'
primary 'Lebedeva, L.S.'
primary 'Vasilyev, V.Ya.'
_cell_length_a 3.520(1)
_cell_length_b 3.520(1)
_cell_length_c 11.396(1)
_cell_angle_alpha 90.
_cell_angle_beta 90.
_cell_angle_gamma 120.
_cell_volume 122.28
_cell_formula_units_Z 4
_space_group_name_H-M_alt 'P 63/m m c'
_space_group_IT_number 194
loop_
_space_group_symop_id
_space_group_symop_operation_xyz
1 'x, x-y, -z+1/2'
2 '-x+y, y, -z+1/2'
3 '-y, -x, -z+1/2'
4 '-x+y, -x, -z+1/2'
5 '-y, x-y, -z+1/2'
6 'x, y, -z+1/2'
7 '-x, -x+y, z+1/2'
8 'x-y, -y, z+1/2'
9 'y, x, z+1/2'
10 'x-y, x, z+1/2'
11 'y, -x+y, z+1/2'
12 '-x, -y, z+1/2'
13 '-x, -x+y, -z'
14 'x-y, -y, -z'
15 'y, x, -z'
16 'x-y, x, -z'
17 'y, -x+y, -z'
18 '-x, -y, -z'
19 'x, x-y, z'
20 '-x+y, y, z'
21 '-y, -x, z'
22 '-x+y, -x, z'
23 '-y, x-y, z'
24 'x, y, z'
loop_
_atom_type_symbol
_atom_type_oxidation_number
Cm0+ 0
loop_
_atom_site_label
_atom_site_type_symbol
_atom_site_symmetry_multiplicity
_atom_site_Wyckoff_symbol
_atom_site_fract_x
_atom_site_fract_y
_atom_site_fract_z
_atom_site_B_iso_or_equiv
_atom_site_occupancy
Cm1 Cm0+ 2 a 0 0 0 . 1
Cm2 Cm0+ 2 c 0.3333 0.6667 0.25 . 1
#End of TTdata_622376-ICSD