
#(C) 2025 by FIZ Karlsruhe - Leibniz Institute for Information Infrastructure.  All rights reserved.
data_24009-ICSD
_database_code_ICSD 24009
_audit_creation_date 1980-01-01
_audit_update_record 2015-08-01
_chemical_name_common Iodine
_chemical_formula_structural I2
_chemical_formula_sum I2
_chemical_name_structure_type I2
_exptl_crystal_density_diffrn 4.95
_citation_title 'The atomic arrangement in the crystal of orthorhombic iodine'
loop_
_citation_id
_citation_journal_full
_citation_year
_citation_journal_volume
_citation_page_first
_citation_page_last
_citation_journal_id_ASTM
primary 'Journal of the American Chemical Society' 1928 50 1583 1600 JACSAT
loop_
_citation_author_citation_id
_citation_author_name
primary 'Harris, P.M.'
primary 'Mack, E.'
primary 'Blake, F.C.'
_cell_length_a 7.255
_cell_length_b 4.795
_cell_length_c 9.78
_cell_angle_alpha 90.
_cell_angle_beta 90.
_cell_angle_gamma 90.
_cell_volume 340.22
_cell_formula_units_Z 4
_space_group_name_H-M_alt 'C m c a'
_space_group_IT_number 64
loop_
_space_group_symop_id
_space_group_symop_operation_xyz
1 '-x, -y+1/2, z+1/2'
2 '-x, y+1/2, -z+1/2'
3 '-x, y, z'
4 '-x, -y, -z'
5 'x, y+1/2, -z+1/2'
6 'x, -y+1/2, z+1/2'
7 'x, -y, -z'
8 'x, y, z'
9 '-x+1/2, -y, z+1/2'
10 '-x+1/2, y, -z+1/2'
11 '-x+1/2, y+1/2, z'
12 '-x+1/2, -y+1/2, -z'
13 'x+1/2, y, -z+1/2'
14 'x+1/2, -y, z+1/2'
15 'x+1/2, -y+1/2, -z'
16 'x+1/2, y+1/2, z'
loop_
_atom_type_symbol
_atom_type_oxidation_number
I0+ 0
loop_
_atom_site_label
_atom_site_type_symbol
_atom_site_symmetry_multiplicity
_atom_site_Wyckoff_symbol
_atom_site_fract_x
_atom_site_fract_y
_atom_site_fract_z
_atom_site_B_iso_or_equiv
_atom_site_occupancy
I1 I0+ 8 f 0 0.15 0.117 . 1.
#End of TTdata_24009-ICSD