
#(C) 2025 by FIZ Karlsruhe - Leibniz Institute for Information Infrastructure.  All rights reserved.
data_131503-ICSD
_database_code_ICSD 131503
_audit_creation_date 2021-02-01
_audit_update_record 2025-02-01
_chemical_name_common Phosphorus
_chemical_formula_structural P
_chemical_formula_sum P1
_chemical_name_structure_type P(Violet)
_exptl_crystal_density_diffrn 2.37
_diffrn_ambient_temperature 296.
_citation_title
'Structure and properties of violet phosphorus and its phosphorene exfoliation'
loop_
_citation_id
_citation_journal_full
_citation_year
_citation_journal_volume
_citation_page_first
_citation_page_last
_citation_journal_id_ASTM
primary 'Angewandte Chemie, International Edition' 2020 59 1074 1080 ACIEF5
loop_
_citation_author_citation_id
_citation_author_name
primary 'Zhang, Lihui'
primary 'Huang, Hongyang'
primary 'Zhang, Bo'
primary 'Gu, Mengyue'
primary 'Zhao, Dan'
primary 'Zhao, Xuewen'
primary 'Li, Longren'
primary 'Zhou, Jun'
primary 'Wu, Kai'
primary 'Cheng, Yonghong'
primary 'Zhang, Jinying'
_cell_length_a 9.210(2)
_cell_length_b 9.128(2)
_cell_length_c 21.893(6)
_cell_angle_alpha 90
_cell_angle_beta 97.776(3)
_cell_angle_gamma 90
_cell_volume 1823.59
_cell_formula_units_Z 84
_space_group_name_H-M_alt 'P 1 2/n 1'
_space_group_IT_number 13
loop_
_space_group_symop_id
_space_group_symop_operation_xyz
1 'x+1/2, -y, z+1/2'
2 '-x+1/2, y, -z+1/2'
3 '-x, -y, -z'
4 'x, y, z'
loop_
_atom_type_symbol
_atom_type_oxidation_number
P0+ 0
loop_
_atom_site_label
_atom_site_type_symbol
_atom_site_symmetry_multiplicity
_atom_site_Wyckoff_symbol
_atom_site_fract_x
_atom_site_fract_y
_atom_site_fract_z
_atom_site_U_iso_or_equiv
_atom_site_occupancy
P1 P0+ 4 g 0.28456(15) 0.63814(16) 0.57338(7) 0.0141(3) 1
P2 P0+ 4 g 0.03108(15) 0.89041(16) 0.57221(7) 0.0148(3) 1
P3 P0+ 4 g 0.19227(16) 0.28052(16) 0.61625(7) 0.0158(3) 1
P4 P0+ 4 g 0.69208(16) -0.22250(16) 0.61646(7) 0.0167(3) 1
P5 P0+ 4 g 0.52618(16) 0.14747(16) 0.53369(7) 0.0157(3) 1
P6 P0+ 4 g -0.20612(15) 0.90516(16) 0.54389(7) 0.0147(3) 1
P7 P0+ 4 g 0.29619(16) 0.40883(16) 0.54459(7) 0.0152(3) 1
P8 P0+ 4 g 0.53294(16) 0.37302(16) 0.56862(7) 0.0161(3) 1
P9 P0+ 4 g 0.37906(17) 0.17906(17) 0.67427(7) 0.0178(3) 1
P10 P0+ 4 g 0.60742(17) -0.05147(17) 0.67255(7) 0.0179(3) 1
P11 P0+ 4 g 0.12980(16) 0.44736(16) 0.68018(7) 0.0167(3) 1
P12 P0+ 4 g 0.42066(16) 0.01547(16) 0.60449(7) 0.0160(3) 1
P13 P0+ 4 g 0.04542(16) 0.65811(17) 0.54454(7) 0.0161(3) 1
P14 P0+ 4 g 0.02663(17) 0.88910(16) 0.67228(7) 0.0181(3) 1
P15 P0+ 4 g -0.05754(16) 0.53228(16) 0.61668(7) 0.0177(3) 1
P16 P0+ 4 g -0.23727(16) 1.13663(16) 0.56655(7) 0.0164(3) 1
P17 P0+ 4 g 0.25465(16) 0.82242(17) 0.70066(7) 0.0171(3) 1
P18 P0+ 4 g 0.31240(17) 0.60138(17) 0.67345(7) 0.0187(3) 1
P19 P0+ 4 g 0.88030(17) -0.29964(17) 0.68115(7) 0.0182(3) 1
P20 P0+ 4 g 0.74920(17) 0.14559(18) 0.66767(7) 0.0208(4) 1
P21 P0+ 4 g 0.57248(17) 0.32520(17) 0.66938(7) 0.0203(4) 1
loop_
_atom_site_aniso_label
_atom_site_aniso_type_symbol
_atom_site_aniso_U_11
_atom_site_aniso_U_22
_atom_site_aniso_U_33
_atom_site_aniso_U_12
_atom_site_aniso_U_13
_atom_site_aniso_U_23
P1 P0+ 0.0146(7) 0.0141(7) 0.0142(7) 0.0032(6) 0.0038(6) 0.0018(6)
P2 P0+ 0.0117(7) 0.0169(8) 0.0158(7) 0.0029(6) 0.0016(6) 0.0029(6)
P3 P0+ 0.0138(7) 0.0128(7) 0.0208(8) 0.0027(6) 0.0030(6) 0.0000(6)
P4 P0+ 0.0128(7) 0.0148(7) 0.0228(8) 0.0038(6) 0.0039(6) 0.0016(6)
P5 P0+ 0.0154(7) 0.0162(7) 0.0157(7) 0.0055(6) 0.0032(6) 0.0017(6)
P6 P0+ 0.0117(7) 0.0177(7) 0.0143(7) 0.0053(6) 0.0001(5) 0.0007(6)
P7 P0+ 0.0155(7) 0.0157(7) 0.0144(7) 0.0046(6) 0.0022(6) -0.0010(6)
P8 P0+ 0.0144(7) 0.0137(7) 0.0207(8) 0.0032(6) 0.0048(6) 0.0024(6)
P9 P0+ 0.0179(8) 0.0182(8) 0.0183(8) 0.0067(6) 0.0068(6) 0.0033(6)
P10 P0+ 0.0195(8) 0.0179(8) 0.0170(8) 0.0048(6) 0.0056(6) 0.0040(6)
P11 P0+ 0.0172(8) 0.0153(7) 0.0185(8) 0.0059(6) 0.0060(6) 0.0032(6)
P12 P0+ 0.0132(7) 0.0132(7) 0.0223(8) 0.0030(6) 0.0043(6) 0.0010(6)
P13 P0+ 0.0153(7) 0.0173(8) 0.0154(7) 0.0049(6) 0.0012(6) 0.0007(6)
P14 P0+ 0.0204(8) 0.0167(8) 0.0161(8) 0.0038(6) -0.0013(6) -0.0007(6)
P15 P0+ 0.0127(7) 0.0165(8) 0.0240(8) 0.0023(6) 0.0028(6) 0.0014(6)
P16 P0+ 0.0142(7) 0.0157(7) 0.0198(8) 0.0021(6) 0.0045(6) 0.0021(6)
P17 P0+ 0.0176(8) 0.0169(8) 0.0163(7) 0.0001(6) 0.0000(6) -0.0003(6)
P18 P0+ 0.0189(8) 0.0200(8) 0.0167(8) 0.0020(6) 0.0007(6) -0.0005(6)
P19 P0+ 0.0176(8) 0.0198(8) 0.0181(8) 0.0062(6) 0.0062(6) 0.0055(6)
P20 P0+ 0.0193(8) 0.0219(8) 0.0200(8) 0.0014(6) -0.0019(6) -0.0024(6)
P21 P0+ 0.0217(8) 0.0179(8) 0.0202(8) 0.0016(6) -0.0008(6) -0.0031(6)
#End of TTdata_131503-ICSD