
#(C) 2025 by FIZ Karlsruhe - Leibniz Institute for Information Infrastructure.  All rights reserved.
data_60324-ICSD
_database_code_ICSD 60324
_audit_creation_date 2023-08-01
_chemical_name_common Rhenium
_chemical_formula_structural Re
_chemical_formula_sum Re1
_chemical_name_structure_type Mg
_exptl_crystal_density_diffrn 21.48
_diffrn_ambient_temperature 300.
_citation_title

;
1â€‰:â€‰1 Ca\(^{2+}\):Cu\(^{2+}\) A-site order in a ferrimagnetic double double
perovskite
;
loop_
_citation_id
_citation_journal_full
_citation_year
_citation_journal_volume
_citation_page_first
_citation_page_last
_citation_journal_id_ASTM
primary 'Angewandte Chemie, International Edition' 2022 61 1 5 ACIEF5
loop_
_citation_author_citation_id
_citation_author_name
primary 'Solanaâ€�Madruga, Elena'
primary 'Kearins, Padraig S.'
primary 'Ritter, Clemens'
primary 'ArÃ©valoâ€�LÃ³pez, Ã�ngel M.'
primary 'Attfield, J. Paul'
_cell_length_a 2.7319(3)
_cell_length_b 2.7319(3)
_cell_length_c 4.4551(7)
_cell_angle_alpha 90.
_cell_angle_beta 90.
_cell_angle_gamma 120.
_cell_volume 28.79
_cell_formula_units_Z 2
_space_group_name_H-M_alt 'P 63/m m c'
_space_group_IT_number 194
loop_
_space_group_symop_id
_space_group_symop_operation_xyz
1 'x, x-y, -z+1/2'
2 '-x+y, y, -z+1/2'
3 '-y, -x, -z+1/2'
4 '-x+y, -x, -z+1/2'
5 '-y, x-y, -z+1/2'
6 'x, y, -z+1/2'
7 '-x, -x+y, z+1/2'
8 'x-y, -y, z+1/2'
9 'y, x, z+1/2'
10 'x-y, x, z+1/2'
11 'y, -x+y, z+1/2'
12 '-x, -y, z+1/2'
13 '-x, -x+y, -z'
14 'x-y, -y, -z'
15 'y, x, -z'
16 'x-y, x, -z'
17 'y, -x+y, -z'
18 '-x, -y, -z'
19 'x, x-y, z'
20 '-x+y, y, z'
21 '-y, -x, z'
22 '-x+y, -x, z'
23 '-y, x-y, z'
24 'x, y, z'
loop_
_atom_type_symbol
_atom_type_oxidation_number
Re0+ 0
loop_
_atom_site_label
_atom_site_type_symbol
_atom_site_symmetry_multiplicity
_atom_site_Wyckoff_symbol
_atom_site_fract_x
_atom_site_fract_y
_atom_site_fract_z
_atom_site_U_iso_or_equiv
_atom_site_occupancy
Re1 Re0+ 2 c 0.33333 0.66667 0.25 0.01741 1.
#End of TTdata_60324-ICSD