
#(C) 2025 by FIZ Karlsruhe - Leibniz Institute for Information Infrastructure.  All rights reserved.
data_43339-ICSD
_database_code_ICSD 43339
_audit_creation_date 2000-07-15
_audit_update_record 2015-08-01
_chemical_name_common 'Uranium - alpha'
_chemical_formula_structural U
_chemical_formula_sum U1
_chemical_name_structure_type U
_exptl_crystal_density_diffrn 18.95
_citation_title

;
X-ray determination of the atomic positions in alpha-uranium at 22 and 660
degree C
;
loop_
_citation_id
_citation_journal_full
_citation_year
_citation_journal_volume
_citation_page_first
_citation_page_last
_citation_journal_id_ASTM
primary 'Acta Crystallographica' 1963 16 575 575 ACCRA9
loop_
_citation_author_citation_id
_citation_author_name
primary 'Eeles, W.T.'
primary 'Sutton, A.L.'
_cell_length_a 2.869(1)
_cell_length_b 5.870(1)
_cell_length_c 4.955(1)
_cell_angle_alpha 90.
_cell_angle_beta 90.
_cell_angle_gamma 90.
_cell_volume 83.45
_cell_formula_units_Z 4
_space_group_name_H-M_alt 'C m c m'
_space_group_IT_number 63
loop_
_space_group_symop_id
_space_group_symop_operation_xyz
1 '-x, y, -z+1/2'
2 '-x, -y, z+1/2'
3 '-x, y, z'
4 '-x, -y, -z'
5 'x, -y, z+1/2'
6 'x, y, -z+1/2'
7 'x, -y, -z'
8 'x, y, z'
9 '-x+1/2, y+1/2, -z+1/2'
10 '-x+1/2, -y+1/2, z+1/2'
11 '-x+1/2, y+1/2, z'
12 '-x+1/2, -y+1/2, -z'
13 'x+1/2, -y+1/2, z+1/2'
14 'x+1/2, y+1/2, -z+1/2'
15 'x+1/2, -y+1/2, -z'
16 'x+1/2, y+1/2, z'
loop_
_atom_type_symbol
_atom_type_oxidation_number
U0+ 0
loop_
_atom_site_label
_atom_site_type_symbol
_atom_site_symmetry_multiplicity
_atom_site_Wyckoff_symbol
_atom_site_fract_x
_atom_site_fract_y
_atom_site_fract_z
_atom_site_B_iso_or_equiv
_atom_site_occupancy
U1 U0+ 4 c 0 0.1021 0.25 0.42 1.
#End of TTdata_43339-ICSD